s 1.000000000 _0_ AGT  --- 0 cbr 512 [0.00 0 0] [energy 1000.000000 ei 0.000 es 0.000 et 0.000 er 0.000] ------- [0:0 1:0 32 0] [0] 0 0
r 1.000000000 _0_ RTR  --- 0 cbr 512 [0.00 0 0] [energy 1000.000000 ei 0.000 es 0.000 et 0.000 er 0.000] ------- [0:0 1:0 32 0] [0] 0 0
s 1.000000000 _0_ RTR  --- 0 cbr 512 [0.00 0 0] [energy 1000.000000 ei 0.000 es 0.000 et 0.000 er 0.000] ------- [0:0 1:0 32 0] [0] 0 0
s 6.003395772 _0_ AGT  --- 1 cbr 512 [0.00 0 0] [energy 1000.000000 ei 0.000 es 0.000 et 0.000 er 0.000] ------- [0:0 1:0 32 0] [1] 0 0
r 6.003395772 _0_ RTR  --- 1 cbr 512 [0.00 0 0] [energy 1000.000000 ei 0.000 es 0.000 et 0.000 er 0.000] ------- [0:0 1:0 32 0] [1] 0 0
s 6.003395772 _0_ RTR  --- 1 cbr 512 [0.00 0 0] [energy 1000.000000 ei 0.000 es 0.000 et 0.000 er 0.000] ------- [0:0 1:0 32 0] [1] 0 0
D 6.003395772 _0_ IFQ  ARP 0 cbr 512 [0.00 0 0] [energy 1000.000000 ei 0.000 es 0.000 et 0.000 er 0.000] ------- [0:0 1:0 32 0] [0] 0 0
s 16.562202932 _0_ AGT  --- 2 cbr 512 [0.00 0 0] [energy 1000.000000 ei 0.000 es 0.000 et 0.000 er 0.000] ------- [0:0 1:0 32 0] [2] 0 0
r 16.562202932 _0_ RTR  --- 2 cbr 512 [0.00 0 0] [energy 1000.000000 ei 0.000 es 0.000 et 0.000 er 0.000] ------- [0:0 1:0 32 0] [2] 0 0
s 16.562202932 _0_ RTR  --- 2 cbr 512 [0.00 0 0] [energy 1000.000000 ei 0.000 es 0.000 et 0.000 er 0.000] ------- [0:0 1:0 32 0] [2] 0 0
D 16.562202932 _0_ IFQ  ARP 1 cbr 512 [0.00 0 0] [energy 1000.000000 ei 0.000 es 0.000 et 0.000 er 0.000] ------- [0:0 1:0 32 0] [1] 0 0
s 17.221000000 _0_ MAC  --- 0 SYNC 9 [0.12 0 0] [energy 1000.000000 ei 0.000 es 0.000 et 0.000 er 0.000] 
N -t 17.221000 -n 1 -e 982.776000
s 18.639000000 _1_ MAC  --- 0 SYNC 9 [0.13 1 0] [energy 982.776000 ei 17.221 es 0.000 et 0.000 er 0.003] 
N -t 18.639000 -n 0 -e 981.358000
s 20.080000000 _0_ MAC  --- 0 SYNC 9 [0.12 0 1] [energy 981.358000 ei 18.636 es 0.000 et 0.003 er 0.003] 
N -t 20.080000 -n 1 -e 979.917000
s 21.704249539 _0_ AGT  --- 3 cbr 512 [0.00 0 0] [energy 979.917000 ei 20.074 es 0.000 et 0.006 er 0.003] ------- [0:0 1:0 32 0] [3] 0 0
r 21.704249539 _0_ RTR  --- 3 cbr 512 [0.00 0 0] [energy 979.917000 ei 20.074 es 0.000 et 0.006 er 0.003] ------- [0:0 1:0 32 0] [3] 0 0
s 21.704249539 _0_ RTR  --- 3 cbr 512 [0.00 0 0] [energy 979.917000 ei 20.074 es 0.000 et 0.006 er 0.003] ------- [0:0 1:0 32 0] [3] 0 0
D 21.704249539 _0_ IFQ  ARP 2 cbr 512 [0.00 0 0] [energy 979.917000 ei 20.074 es 0.000 et 0.006 er 0.003] ------- [0:0 1:0 32 0] [2] 0 0
D 21.704249539 _0_ IFQ  ARP 3 cbr 512 [0.00 0 0] [energy 979.917000 ei 20.074 es 0.000 et 0.006 er 0.003] ------- [0:0 1:0 32 0] [3] 0 0
s 32.981000000 _1_ MAC  --- 0 SYNC 9 [0.12 1 0] [energy 979.917000 ei 20.074 es 0.000 et 0.003 er 0.006] 
N -t 32.981000 -n 0 -e 967.016000
N -t 33.102200 -n 1 -e 966.896800
N -t 34.392000 -n 1 -e 966.894510
s 34.420000000 _0_ MAC  --- 0 SYNC 9 [0.11 0 1] [energy 967.016000 ei 32.972 es 0.000 et 0.006 er 0.006] 
N -t 34.420000 -n 1 -e 966.863510
N -t 34.535200 -n 0 -e 965.463800
N -t 34.535200 -n 1 -e 966.750310
s 34.869010053 _0_ AGT  --- 4 cbr 512 [0.00 0 0] [energy 965.463800 ei 34.520 es 0.000 et 0.009 er 0.006] ------- [0:0 1:0 32 0] [4] 0 0
r 34.869010053 _0_ RTR  --- 4 cbr 512 [0.00 0 0] [energy 965.463800 ei 34.520 es 0.000 et 0.009 er 0.006] ------- [0:0 1:0 32 0] [4] 0 0
s 34.869010053 _0_ RTR  --- 4 cbr 512 [0.00 0 0] [energy 965.463800 ei 34.520 es 0.000 et 0.009 er 0.006] ------- [0:0 1:0 32 0] [4] 0 0
N -t 35.825000 -n 0 -e 965.461510
N -t 35.825000 -n 1 -e 966.748020
N -t 35.968200 -n 0 -e 965.317310
N -t 35.968200 -n 1 -e 966.603820
N -t 37.258000 -n 0 -e 965.315020
N -t 37.258000 -n 1 -e 966.601531
N -t 37.401200 -n 0 -e 965.170820
N -t 37.401200 -n 1 -e 966.457331
N -t 38.691000 -n 0 -e 965.168531
N -t 38.691000 -n 1 -e 966.455041
N -t 38.834200 -n 0 -e 965.024331
N -t 38.834200 -n 1 -e 966.310841
N -t 40.124000 -n 0 -e 965.022041
N -t 40.124000 -n 1 -e 966.308551
N -t 40.267200 -n 0 -e 964.877841
N -t 40.267200 -n 1 -e 966.164351
N -t 41.000000 -n 0 -e 964.877108
N -t 41.000000 -n 1 -e 966.163618
N -t 41.557000 -n 0 -e 964.875551
N -t 41.557000 -n 1 -e 966.162061
N -t 41.700200 -n 0 -e 964.731351
N -t 41.700200 -n 1 -e 966.017861
s 42.959800631 _0_ AGT  --- 5 cbr 512 [0.00 0 0] [energy 964.731351 ei 35.236 es 0.006 et 0.009 er 0.006] ------- [0:0 1:0 32 0] [5] 0 0
r 42.959800631 _0_ RTR  --- 5 cbr 512 [0.00 0 0] [energy 964.731351 ei 35.236 es 0.006 et 0.009 er 0.006] ------- [0:0 1:0 32 0] [5] 0 0
s 42.959800631 _0_ RTR  --- 5 cbr 512 [0.00 0 0] [energy 964.731351 ei 35.236 es 0.006 et 0.009 er 0.006] ------- [0:0 1:0 32 0] [5] 0 0
D 42.959800631 _0_ IFQ  ARP 4 cbr 512 [0.00 0 0] [energy 964.731351 ei 35.236 es 0.006 et 0.009 er 0.006] ------- [0:0 1:0 32 0] [4] 0 0
N -t 42.990000 -n 0 -e 964.729061
N -t 42.990000 -n 1 -e 966.015571
N -t 43.133200 -n 0 -e 964.584861
N -t 43.133200 -n 1 -e 965.871371
N -t 44.423000 -n 0 -e 964.582571
N -t 44.423000 -n 1 -e 965.869082
N -t 44.566200 -n 0 -e 964.438371
N -t 44.566200 -n 1 -e 965.724882
N -t 45.856000 -n 0 -e 964.436082
N -t 45.856000 -n 1 -e 965.722592
N -t 45.999200 -n 0 -e 964.291882
N -t 45.999200 -n 1 -e 965.578392
N -t 47.289000 -n 0 -e 964.289592
N -t 47.289000 -n 1 -e 965.576102
s 47.301000000 _1_ MAC  --- 0 SYNC 9 [0.13 1 0] [energy 965.576102 ei 34.376 es 0.013 et 0.006 er 0.009] 
N -t 47.301000 -n 0 -e 964.274592
N -t 47.432200 -n 1 -e 965.431902
N -t 47.432200 -n 0 -e 964.145392
N -t 48.722000 -n 1 -e 965.429612
N -t 48.722000 -n 0 -e 964.143102
s 48.759000000 _0_ MAC  --- 0 SYNC 9 [0.10 0 1] [energy 964.143102 ei 35.806 es 0.013 et 0.009 er 0.009] 
N -t 48.759000 -n 1 -e 965.389612
N -t 48.865200 -n 0 -e 963.998902
N -t 48.865200 -n 1 -e 965.285412
N -t 50.155000 -n 0 -e 963.996612
N -t 50.155000 -n 1 -e 965.283122
N -t 50.298200 -n 0 -e 963.852412
N -t 50.298200 -n 1 -e 965.138922
N -t 51.000000 -n 0 -e 963.851710
N -t 51.000000 -n 1 -e 965.138221
N -t 51.588000 -n 0 -e 963.850122
N -t 51.588000 -n 1 -e 965.136633
N -t 51.731200 -n 0 -e 963.705922
N -t 51.731200 -n 1 -e 964.992433
N -t 53.021000 -n 0 -e 963.703633
N -t 53.021000 -n 1 -e 964.990143
N -t 53.164200 -n 0 -e 963.559433
N -t 53.164200 -n 1 -e 964.845943
N -t 54.454000 -n 0 -e 963.557143
N -t 54.454000 -n 1 -e 964.843653
N -t 54.597200 -n 0 -e 963.412943
N -t 54.597200 -n 1 -e 964.699453
N -t 55.887000 -n 0 -e 963.410653
N -t 55.887000 -n 1 -e 964.697163
N -t 56.030200 -n 0 -e 963.266453
N -t 56.030200 -n 1 -e 964.552963
s 56.323036000 _0_ AGT  --- 6 cbr 512 [0.00 0 0] [energy 963.266453 ei 36.662 es 0.019 et 0.012 er 0.009] ------- [0:0 1:0 32 0] [6] 0 0
r 56.323036000 _0_ RTR  --- 6 cbr 512 [0.00 0 0] [energy 963.266453 ei 36.662 es 0.019 et 0.012 er 0.009] ------- [0:0 1:0 32 0] [6] 0 0
s 56.323036000 _0_ RTR  --- 6 cbr 512 [0.00 0 0] [energy 963.266453 ei 36.662 es 0.019 et 0.012 er 0.009] ------- [0:0 1:0 32 0] [6] 0 0
D 56.323036000 _0_ IFQ  ARP 5 cbr 512 [0.00 0 0] [energy 963.266453 ei 36.662 es 0.019 et 0.012 er 0.009] ------- [0:0 1:0 32 0] [5] 0 0
N -t 57.320000 -n 0 -e 963.264163
N -t 57.320000 -n 1 -e 964.550673
N -t 57.463200 -n 0 -e 963.119963
N -t 57.463200 -n 1 -e 964.406473
N -t 58.753000 -n 0 -e 963.117673
N -t 58.753000 -n 1 -e 964.404184
N -t 58.896200 -n 0 -e 962.973473
N -t 58.896200 -n 1 -e 964.259984
N -t 60.186000 -n 0 -e 962.971184
N -t 60.186000 -n 1 -e 964.257694
N -t 60.329200 -n 0 -e 962.826984
N -t 60.329200 -n 1 -e 964.113494
N -t 61.000000 -n 0 -e 962.826313
N -t 61.000000 -n 1 -e 964.112823
N -t 61.619000 -n 0 -e 962.824694
N -t 61.619000 -n 1 -e 964.111204
s 61.647000000 _1_ MAC  --- 0 SYNC 9 [0.11 1 0] [energy 964.111204 ei 35.802 es 0.026 et 0.009 er 0.012] 
N -t 61.647000 -n 0 -e 962.793694
N -t 61.762200 -n 1 -e 963.967004
N -t 61.762200 -n 0 -e 962.680494
N -t 63.052000 -n 1 -e 963.964714
N -t 63.052000 -n 0 -e 962.678204
s 63.074000000 _0_ MAC  --- 0 SYNC 9 [0.12 0 1] [energy 962.678204 ei 37.232 es 0.026 et 0.012 er 0.012] 
N -t 63.074000 -n 1 -e 963.939714
N -t 63.195200 -n 0 -e 962.534004
N -t 63.195200 -n 1 -e 963.820514
N -t 64.485000 -n 0 -e 962.531714
N -t 64.485000 -n 1 -e 963.818224
N -t 64.628200 -n 0 -e 962.387514
N -t 64.628200 -n 1 -e 963.674024
N -t 65.918000 -n 0 -e 962.385224
N -t 65.918000 -n 1 -e 963.671735
N -t 66.061200 -n 0 -e 962.241024
N -t 66.061200 -n 1 -e 963.527535
N -t 67.351000 -n 0 -e 962.238735
N -t 67.351000 -n 1 -e 963.525245
N -t 67.494200 -n 0 -e 962.094535
N -t 67.494200 -n 1 -e 963.381045
s 67.723712592 _0_ AGT  --- 7 cbr 512 [0.00 0 0] [energy 962.094535 ei 37.802 es 0.030 et 0.015 er 0.012] ------- [0:0 1:0 32 0] [7] 0 0
r 67.723712592 _0_ RTR  --- 7 cbr 512 [0.00 0 0] [energy 962.094535 ei 37.802 es 0.030 et 0.015 er 0.012] ------- [0:0 1:0 32 0] [7] 0 0
s 67.723712592 _0_ RTR  --- 7 cbr 512 [0.00 0 0] [energy 962.094535 ei 37.802 es 0.030 et 0.015 er 0.012] ------- [0:0 1:0 32 0] [7] 0 0
D 67.723712592 _0_ IFQ  ARP 6 cbr 512 [0.00 0 0] [energy 962.094535 ei 37.802 es 0.030 et 0.015 er 0.012] ------- [0:0 1:0 32 0] [6] 0 0
D 67.723712592 _0_ IFQ  ARP 7 cbr 512 [0.00 0 0] [energy 962.094535 ei 37.802 es 0.030 et 0.015 er 0.012] ------- [0:0 1:0 32 0] [7] 0 0
N -t 68.784000 -n 0 -e 962.092245
N -t 68.784000 -n 1 -e 963.378755
N -t 68.927200 -n 0 -e 961.948045
N -t 68.927200 -n 1 -e 963.234555
N -t 70.217000 -n 0 -e 961.945755
N -t 70.217000 -n 1 -e 963.232265
N -t 70.360200 -n 0 -e 961.801555
N -t 70.360200 -n 1 -e 963.088065
N -t 71.000000 -n 0 -e 961.800915
N -t 71.000000 -n 1 -e 963.087425
N -t 71.650000 -n 0 -e 961.799265
N -t 71.650000 -n 1 -e 963.085775
N -t 71.793200 -n 0 -e 961.655065
N -t 71.793200 -n 1 -e 962.941575
N -t 73.083000 -n 0 -e 961.652775
N -t 73.083000 -n 1 -e 962.939286
N -t 73.226200 -n 0 -e 961.508575
N -t 73.226200 -n 1 -e 962.795086
N -t 74.516000 -n 0 -e 961.506286
N -t 74.516000 -n 1 -e 962.792796
N -t 74.659200 -n 0 -e 961.362086
N -t 74.659200 -n 1 -e 962.648596
N -t 75.949000 -n 0 -e 961.359796
N -t 75.949000 -n 1 -e 962.646306
s 75.983000000 _1_ MAC  --- 0 SYNC 9 [0.11 1 0] [energy 962.646306 ei 37.228 es 0.039 et 0.012 er 0.015] 
N -t 75.983000 -n 0 -e 961.322796
N -t 76.092200 -n 1 -e 962.502106
N -t 76.092200 -n 0 -e 961.215596
s 76.960279955 _0_ AGT  --- 8 cbr 512 [0.00 0 0] [energy 961.215596 ei 38.658 es 0.037 et 0.015 er 0.015] ------- [0:0 1:0 32 0] [8] 0 0
r 76.960279955 _0_ RTR  --- 8 cbr 512 [0.00 0 0] [energy 961.215596 ei 38.658 es 0.037 et 0.015 er 0.015] ------- [0:0 1:0 32 0] [8] 0 0
s 76.960279955 _0_ RTR  --- 8 cbr 512 [0.00 0 0] [energy 961.215596 ei 38.658 es 0.037 et 0.015 er 0.015] ------- [0:0 1:0 32 0] [8] 0 0
N -t 77.382000 -n 1 -e 962.499816
N -t 77.382000 -n 0 -e 961.213306
s 77.408000000 _0_ MAC  --- 0 SYNC 9 [0.11 0 1] [energy 961.213306 ei 38.658 es 0.039 et 0.015 er 0.015] 
N -t 77.408000 -n 1 -e 962.470816
N -t 77.525200 -n 0 -e 961.069106
N -t 77.525200 -n 1 -e 962.355616
N -t 78.815000 -n 0 -e 961.066816
N -t 78.815000 -n 1 -e 962.353326
N -t 78.958200 -n 0 -e 960.922616
N -t 78.958200 -n 1 -e 962.209126
N -t 80.248000 -n 0 -e 960.920326
N -t 80.248000 -n 1 -e 962.206837
N -t 80.391200 -n 0 -e 960.776126
N -t 80.391200 -n 1 -e 962.062637
N -t 81.000000 -n 0 -e 960.775518
N -t 81.000000 -n 1 -e 962.062028
N -t 81.681000 -n 0 -e 960.773837
N -t 81.681000 -n 1 -e 962.060347
N -t 81.824200 -n 0 -e 960.629637
N -t 81.824200 -n 1 -e 961.916147
s 82.901668500 _0_ AGT  --- 9 cbr 512 [0.00 0 0] [energy 960.629637 ei 39.228 es 0.043 et 0.018 er 0.015] ------- [0:0 1:0 32 0] [9] 0 0
r 82.901668500 _0_ RTR  --- 9 cbr 512 [0.00 0 0] [energy 960.629637 ei 39.228 es 0.043 et 0.018 er 0.015] ------- [0:0 1:0 32 0] [9] 0 0
s 82.901668500 _0_ RTR  --- 9 cbr 512 [0.00 0 0] [energy 960.629637 ei 39.228 es 0.043 et 0.018 er 0.015] ------- [0:0 1:0 32 0] [9] 0 0
D 82.901668500 _0_ IFQ  ARP 8 cbr 512 [0.00 0 0] [energy 960.629637 ei 39.228 es 0.043 et 0.018 er 0.015] ------- [0:0 1:0 32 0] [8] 0 0
N -t 83.114000 -n 0 -e 960.627347
N -t 83.114000 -n 1 -e 961.913857
N -t 83.257200 -n 0 -e 960.483147
N -t 83.257200 -n 1 -e 961.769657
N -t 84.547000 -n 0 -e 960.480857
N -t 84.547000 -n 1 -e 961.767367
N -t 84.690200 -n 0 -e 960.336657
N -t 84.690200 -n 1 -e 961.623167
N -t 85.980000 -n 0 -e 960.334367
N -t 85.980000 -n 1 -e 961.620877
N -t 86.123200 -n 0 -e 960.190167
N -t 86.123200 -n 1 -e 961.476677
N -t 87.413000 -n 0 -e 960.187877
N -t 87.413000 -n 1 -e 961.474388
N -t 87.556200 -n 0 -e 960.043677
N -t 87.556200 -n 1 -e 961.330188
N -t 88.846000 -n 0 -e 960.041388
N -t 88.846000 -n 1 -e 961.327898
N -t 88.989200 -n 0 -e 959.897188
N -t 88.989200 -n 1 -e 961.183698
N -t 90.279000 -n 0 -e 959.894898
N -t 90.279000 -n 1 -e 961.181408
s 90.300000000 _1_ MAC  --- 0 SYNC 9 [0.12 1 0] [energy 961.181408 ei 38.654 es 0.052 et 0.015 er 0.018] 
N -t 90.300000 -n 0 -e 959.870898
N -t 90.422200 -n 1 -e 961.037208
N -t 90.422200 -n 0 -e 959.750698
N -t 91.000000 -n 0 -e 959.750120
N -t 91.000000 -n 1 -e 961.036630
s 91.389078756 _0_ AGT  --- 10 cbr 512 [0.00 0 0] [energy 959.750120 ei 40.084 es 0.051 et 0.018 er 0.018] ------- [0:0 1:0 32 0] [10] 0 0
r 91.389078756 _0_ RTR  --- 10 cbr 512 [0.00 0 0] [energy 959.750120 ei 40.084 es 0.051 et 0.018 er 0.018] ------- [0:0 1:0 32 0] [10] 0 0
s 91.389078756 _0_ RTR  --- 10 cbr 512 [0.00 0 0] [energy 959.750120 ei 40.084 es 0.051 et 0.018 er 0.018] ------- [0:0 1:0 32 0] [10] 0 0
D 91.389078756 _0_ IFQ  ARP 9 cbr 512 [0.00 0 0] [energy 959.750120 ei 40.084 es 0.051 et 0.018 er 0.018] ------- [0:0 1:0 32 0] [9] 0 0
N -t 91.712000 -n 1 -e 961.034918
N -t 91.712000 -n 0 -e 959.748408
s 91.734000000 _0_ MAC  --- 0 SYNC 9 [0.12 0 1] [energy 959.748408 ei 40.084 es 0.052 et 0.018 er 0.018] 
N -t 91.734000 -n 1 -e 961.009918
N -t 91.855200 -n 0 -e 959.604208
N -t 91.855200 -n 1 -e 960.890718
N -t 93.145000 -n 0 -e 959.601918
N -t 93.145000 -n 1 -e 960.888428
N -t 93.288200 -n 0 -e 959.457718
N -t 93.288200 -n 1 -e 960.744228
N -t 94.578000 -n 0 -e 959.455428
N -t 94.578000 -n 1 -e 960.741939
N -t 94.721200 -n 0 -e 959.311228
N -t 94.721200 -n 1 -e 960.597739
N -t 96.011000 -n 0 -e 959.308939
N -t 96.011000 -n 1 -e 960.595449
N -t 96.154200 -n 0 -e 959.164739
N -t 96.154200 -n 1 -e 960.451249
N -t 97.444000 -n 0 -e 959.162449
N -t 97.444000 -n 1 -e 960.448959
N -t 97.587200 -n 0 -e 959.018249
N -t 97.587200 -n 1 -e 960.304759
N -t 98.877000 -n 0 -e 959.015959
N -t 98.877000 -n 1 -e 960.302469
N -t 99.020200 -n 0 -e 958.871759
N -t 99.020200 -n 1 -e 960.158269
N -t 100.310000 -n 0 -e 958.869469
N -t 100.310000 -n 1 -e 960.155979
N -t 100.453200 -n 0 -e 958.725269
N -t 100.453200 -n 1 -e 960.011779
s 100.475935516 _0_ AGT  --- 11 cbr 512 [0.00 0 0] [energy 958.725269 ei 41.083 es 0.059 et 0.021 er 0.018] ------- [0:0 1:0 32 0] [11] 0 0
r 100.475935516 _0_ RTR  --- 11 cbr 512 [0.00 0 0] [energy 958.725269 ei 41.083 es 0.059 et 0.021 er 0.018] ------- [0:0 1:0 32 0] [11] 0 0
s 100.475935516 _0_ RTR  --- 11 cbr 512 [0.00 0 0] [energy 958.725269 ei 41.083 es 0.059 et 0.021 er 0.018] ------- [0:0 1:0 32 0] [11] 0 0
D 100.475935516 _0_ IFQ  ARP 10 cbr 512 [0.00 0 0] [energy 958.725269 ei 41.083 es 0.059 et 0.021 er 0.018] ------- [0:0 1:0 32 0] [10] 0 0
D 100.475935516 _0_ IFQ  ARP 11 cbr 512 [0.00 0 0] [energy 958.725269 ei 41.083 es 0.059 et 0.021 er 0.018] ------- [0:0 1:0 32 0] [11] 0 0
N -t 101.000000 -n 0 -e 958.724722
N -t 101.000000 -n 1 -e 960.011233
N -t 101.743000 -n 0 -e 958.722979
N -t 101.743000 -n 1 -e 960.009490
N -t 101.886200 -n 0 -e 958.578779
N -t 101.886200 -n 1 -e 959.865290
N -t 103.176000 -n 0 -e 958.576490
N -t 103.176000 -n 1 -e 959.863000
N -t 103.319200 -n 0 -e 958.432290
N -t 103.319200 -n 1 -e 959.718800
N -t 104.609000 -n 0 -e 958.430000
N -t 104.609000 -n 1 -e 959.716510
s 104.628000000 _1_ MAC  --- 0 SYNC 9 [0.12 1 0] [energy 959.716510 ei 40.080 es 0.064 et 0.018 er 0.021] 
N -t 104.628000 -n 0 -e 958.408000
N -t 104.752200 -n 1 -e 959.572310
N -t 104.752200 -n 0 -e 958.285800
N -t 106.042000 -n 1 -e 959.570020
N -t 106.042000 -n 0 -e 958.283510
s 106.081000000 _0_ MAC  --- 0 SYNC 9 [0.10 0 1] [energy 958.283510 ei 41.510 es 0.064 et 0.021 er 0.021] 
N -t 106.081000 -n 1 -e 959.528020
N -t 106.185200 -n 0 -e 958.139310
N -t 106.185200 -n 1 -e 959.425820
N -t 107.475000 -n 0 -e 958.137020
N -t 107.475000 -n 1 -e 959.423530
N -t 107.618200 -n 0 -e 957.992820
N -t 107.618200 -n 1 -e 959.279330
N -t 108.908000 -n 0 -e 957.990530
N -t 108.908000 -n 1 -e 959.277041
N -t 109.051200 -n 0 -e 957.846330
N -t 109.051200 -n 1 -e 959.132841
s 110.137094880 _0_ AGT  --- 12 cbr 512 [0.00 0 0] [energy 957.846330 ei 41.937 es 0.067 et 0.024 er 0.021] ------- [0:0 1:0 32 0] [12] 0 0
r 110.137094880 _0_ RTR  --- 12 cbr 512 [0.00 0 0] [energy 957.846330 ei 41.937 es 0.067 et 0.024 er 0.021] ------- [0:0 1:0 32 0] [12] 0 0
s 110.137094880 _0_ RTR  --- 12 cbr 512 [0.00 0 0] [energy 957.846330 ei 41.937 es 0.067 et 0.024 er 0.021] ------- [0:0 1:0 32 0] [12] 0 0
N -t 110.341000 -n 0 -e 957.844041
N -t 110.341000 -n 1 -e 959.130551
N -t 110.484200 -n 0 -e 957.699841
N -t 110.484200 -n 1 -e 958.986351
N -t 111.000000 -n 0 -e 957.699325
N -t 111.000000 -n 1 -e 958.985835
N -t 111.774000 -n 0 -e 957.697551
N -t 111.774000 -n 1 -e 958.984061
N -t 111.917200 -n 0 -e 957.553351
N -t 111.917200 -n 1 -e 958.839861
N -t 113.207000 -n 0 -e 957.551061
N -t 113.207000 -n 1 -e 958.837571
N -t 113.350200 -n 0 -e 957.406861
N -t 113.350200 -n 1 -e 958.693371
N -t 114.640000 -n 0 -e 957.404571
N -t 114.640000 -n 1 -e 958.691081
N -t 114.783200 -n 0 -e 957.260371
N -t 114.783200 -n 1 -e 958.546881
N -t 116.073000 -n 0 -e 957.258081
N -t 116.073000 -n 1 -e 958.544592
N -t 116.216200 -n 0 -e 957.113881
N -t 116.216200 -n 1 -e 958.400392
N -t 117.506000 -n 0 -e 957.111592
N -t 117.506000 -n 1 -e 958.398102
N -t 117.649200 -n 0 -e 956.967392
N -t 117.649200 -n 1 -e 958.253902
N -t 118.939000 -n 0 -e 956.965102
N -t 118.939000 -n 1 -e 958.251612
s 118.976000000 _1_ MAC  --- 0 SYNC 9 [0.10 1 0] [energy 958.251612 ei 41.506 es 0.077 et 0.021 er 0.024] 
N -t 118.976000 -n 0 -e 956.925102
N -t 119.082200 -n 1 -e 958.107412
N -t 119.082200 -n 0 -e 956.820902
N -t 120.372000 -n 1 -e 958.105122
N -t 120.372000 -n 0 -e 956.818612
s 120.400000000 _0_ MAC  --- 0 SYNC 9 [0.11 0 1] [energy 956.818612 ei 42.936 es 0.077 et 0.024 er 0.024] 
N -t 120.400000 -n 1 -e 958.074122
N -t 120.515200 -n 0 -e 956.674412
N -t 120.515200 -n 1 -e 957.960922
N -t 121.000000 -n 0 -e 956.673927
N -t 121.000000 -n 1 -e 957.960437
N -t 121.805000 -n 0 -e 956.672122
N -t 121.805000 -n 1 -e 957.958632
N -t 121.948200 -n 0 -e 956.527922
N -t 121.948200 -n 1 -e 957.814432
N -t 123.238000 -n 0 -e 956.525632
N -t 123.238000 -n 1 -e 957.812143
N -t 123.381200 -n 0 -e 956.381432
N -t 123.381200 -n 1 -e 957.667943
s 123.535346909 _0_ AGT  --- 13 cbr 512 [0.00 0 0] [energy 956.381432 ei 43.363 es 0.080 et 0.027 er 0.024] ------- [0:0 1:0 32 0] [13] 0 0
r 123.535346909 _0_ RTR  --- 13 cbr 512 [0.00 0 0] [energy 956.381432 ei 43.363 es 0.080 et 0.027 er 0.024] ------- [0:0 1:0 32 0] [13] 0 0
s 123.535346909 _0_ RTR  --- 13 cbr 512 [0.00 0 0] [energy 956.381432 ei 43.363 es 0.080 et 0.027 er 0.024] ------- [0:0 1:0 32 0] [13] 0 0
D 123.535346909 _0_ IFQ  ARP 12 cbr 512 [0.00 0 0] [energy 956.381432 ei 43.363 es 0.080 et 0.027 er 0.024] ------- [0:0 1:0 32 0] [12] 0 0
N -t 124.671000 -n 0 -e 956.379143
N -t 124.671000 -n 1 -e 957.665653
N -t 124.814200 -n 0 -e 956.234943
N -t 124.814200 -n 1 -e 957.521453
N -t 126.104000 -n 0 -e 956.232653
N -t 126.104000 -n 1 -e 957.519163
N -t 126.247200 -n 0 -e 956.088453
N -t 126.247200 -n 1 -e 957.374963
N -t 127.537000 -n 0 -e 956.086163
N -t 127.537000 -n 1 -e 957.372673
N -t 127.680200 -n 0 -e 955.941963
N -t 127.680200 -n 1 -e 957.228473
N -t 128.970000 -n 0 -e 955.939673
N -t 128.970000 -n 1 -e 957.226183
N -t 129.113200 -n 0 -e 955.795473
N -t 129.113200 -n 1 -e 957.081983
N -t 130.403000 -n 0 -e 955.793183
N -t 130.403000 -n 1 -e 957.079694
N -t 130.546200 -n 0 -e 955.648983
N -t 130.546200 -n 1 -e 956.935494
N -t 131.000000 -n 0 -e 955.648530
N -t 131.000000 -n 1 -e 956.935040
N -t 131.836000 -n 0 -e 955.646694
N -t 131.836000 -n 1 -e 956.933204
N -t 131.979200 -n 0 -e 955.502494
N -t 131.979200 -n 1 -e 956.789004
N -t 133.269000 -n 0 -e 955.500204
N -t 133.269000 -n 1 -e 956.786714
s 133.294000000 _1_ MAC  --- 0 SYNC 9 [0.12 1 0] [energy 956.786714 ei 42.932 es 0.090 et 0.024 er 0.027] 
N -t 133.294000 -n 0 -e 955.472204
N -t 133.412200 -n 0 -e 955.356004
N -t 133.412200 -n 1 -e 956.642514
N -t 134.702000 -n 0 -e 955.353714
N -t 134.702000 -n 1 -e 956.640224
s 134.730000000 _0_ MAC  --- 0 SYNC 9 [0.11 0 1] [energy 955.353714 ei 44.362 es 0.090 et 0.027 er 0.027] 
N -t 134.730000 -n 1 -e 956.609224
N -t 134.845200 -n 1 -e 956.496024
N -t 134.845200 -n 0 -e 955.209514
N -t 136.135000 -n 1 -e 956.493734
N -t 136.135000 -n 0 -e 955.207224
N -t 136.278200 -n 1 -e 956.349534
N -t 136.278200 -n 0 -e 955.063024
s 137.046412428 _0_ AGT  --- 14 cbr 512 [0.00 0 0] [energy 955.063024 ei 44.645 es 0.092 et 0.030 er 0.027] ------- [0:0 1:0 32 0] [14] 0 0
r 137.046412428 _0_ RTR  --- 14 cbr 512 [0.00 0 0] [energy 955.063024 ei 44.645 es 0.092 et 0.030 er 0.027] ------- [0:0 1:0 32 0] [14] 0 0
s 137.046412428 _0_ RTR  --- 14 cbr 512 [0.00 0 0] [energy 955.063024 ei 44.645 es 0.092 et 0.030 er 0.027] ------- [0:0 1:0 32 0] [14] 0 0
D 137.046412428 _0_ IFQ  ARP 13 cbr 512 [0.00 0 0] [energy 955.063024 ei 44.645 es 0.092 et 0.030 er 0.027] ------- [0:0 1:0 32 0] [13] 0 0
N -t 137.568000 -n 1 -e 956.347245
N -t 137.568000 -n 0 -e 955.060734
N -t 137.711200 -n 1 -e 956.203045
N -t 137.711200 -n 0 -e 954.916534
N -t 139.001000 -n 1 -e 956.200755
N -t 139.001000 -n 0 -e 954.914245
N -t 139.144200 -n 1 -e 956.056555
N -t 139.144200 -n 0 -e 954.770045
N -t 140.434000 -n 1 -e 956.054265
N -t 140.434000 -n 0 -e 954.767755
N -t 140.577200 -n 1 -e 955.910065
N -t 140.577200 -n 0 -e 954.623555
N -t 141.000000 -n 0 -e 954.623132
N -t 141.000000 -n 1 -e 955.909642
N -t 141.867000 -n 1 -e 955.907775
N -t 141.867000 -n 0 -e 954.621265
N -t 142.010200 -n 1 -e 955.763575
N -t 142.010200 -n 0 -e 954.477065
N -t 143.300000 -n 1 -e 955.761285
N -t 143.300000 -n 0 -e 954.474775
N -t 143.443200 -n 1 -e 955.617085
N -t 143.443200 -n 0 -e 954.330575
N -t 144.733000 -n 1 -e 955.614796
N -t 144.733000 -n 0 -e 954.328285
N -t 144.876200 -n 1 -e 955.470596
N -t 144.876200 -n 0 -e 954.184085
N -t 146.166000 -n 1 -e 955.468306
N -t 146.166000 -n 0 -e 954.181796
N -t 146.309200 -n 1 -e 955.324106
N -t 146.309200 -n 0 -e 954.037596
N -t 147.599000 -n 1 -e 955.321816
N -t 147.599000 -n 0 -e 954.035306
s 147.613000000 _1_ MAC  --- 0 SYNC 9 [0.13 1 0] [energy 955.321816 ei 44.358 es 0.103 et 0.027 er 0.030] 
N -t 147.613000 -n 0 -e 954.018306
N -t 147.742200 -n 0 -e 953.891106
N -t 147.742200 -n 1 -e 955.177616
N -t 149.032000 -n 0 -e 953.888816
N -t 149.032000 -n 1 -e 955.175326
s 149.056000000 _0_ MAC  --- 0 SYNC 9 [0.12 0 1] [energy 953.888816 ei 45.788 es 0.103 et 0.030 er 0.030] 
N -t 149.056000 -n 1 -e 955.148326
N -t 149.175200 -n 1 -e 955.031126
N -t 149.175200 -n 0 -e 953.744616
N -t 150.465000 -n 1 -e 955.028836
N -t 150.465000 -n 0 -e 953.742326
N -t 150.608200 -n 1 -e 954.884636
N -t 150.608200 -n 0 -e 953.598126
N -t 151.000000 -n 0 -e 953.597734
N -t 151.000000 -n 1 -e 954.884245
s 151.095867119 _0_ AGT  --- 15 cbr 512 [0.00 0 0] [energy 953.597734 ei 46.071 es 0.105 et 0.033 er 0.030] ------- [0:0 1:0 32 0] [15] 0 0
r 151.095867119 _0_ RTR  --- 15 cbr 512 [0.00 0 0] [energy 953.597734 ei 46.071 es 0.105 et 0.033 er 0.030] ------- [0:0 1:0 32 0] [15] 0 0
s 151.095867119 _0_ RTR  --- 15 cbr 512 [0.00 0 0] [energy 953.597734 ei 46.071 es 0.105 et 0.033 er 0.030] ------- [0:0 1:0 32 0] [15] 0 0
D 151.095867119 _0_ IFQ  ARP 14 cbr 512 [0.00 0 0] [energy 953.597734 ei 46.071 es 0.105 et 0.033 er 0.030] ------- [0:0 1:0 32 0] [14] 0 0
D 151.095867119 _0_ IFQ  ARP 15 cbr 512 [0.00 0 0] [energy 953.597734 ei 46.071 es 0.105 et 0.033 er 0.030] ------- [0:0 1:0 32 0] [15] 0 0
N -t 151.898000 -n 1 -e 954.882347
N -t 151.898000 -n 0 -e 953.595836
N -t 152.041200 -n 1 -e 954.738147
N -t 152.041200 -n 0 -e 953.451636
N -t 153.331000 -n 1 -e 954.735857
N -t 153.331000 -n 0 -e 953.449347
N -t 153.474200 -n 1 -e 954.591657
N -t 153.474200 -n 0 -e 953.305147
N -t 154.764000 -n 1 -e 954.589367
N -t 154.764000 -n 0 -e 953.302857
N -t 154.907200 -n 1 -e 954.445167
N -t 154.907200 -n 0 -e 953.158657
N -t 156.197000 -n 1 -e 954.442877
N -t 156.197000 -n 0 -e 953.156367
N -t 156.340200 -n 1 -e 954.298677
N -t 156.340200 -n 0 -e 953.012167
N -t 157.630000 -n 1 -e 954.296387
N -t 157.630000 -n 0 -e 953.009877
N -t 157.773200 -n 1 -e 954.152187
N -t 157.773200 -n 0 -e 952.865677
N -t 159.063000 -n 1 -e 954.149898
N -t 159.063000 -n 0 -e 952.863387
N -t 159.206200 -n 1 -e 954.005698
N -t 159.206200 -n 0 -e 952.719187
s 160.137942400 _0_ AGT  --- 16 cbr 512 [0.00 0 0] [energy 952.719187 ei 46.931 es 0.112 et 0.033 er 0.030] ------- [0:0 1:0 32 0] [16] 0 0
r 160.137942400 _0_ RTR  --- 16 cbr 512 [0.00 0 0] [energy 952.719187 ei 46.931 es 0.112 et 0.033 er 0.030] ------- [0:0 1:0 32 0] [16] 0 0
s 160.137942400 _0_ RTR  --- 16 cbr 512 [0.00 0 0] [energy 952.719187 ei 46.931 es 0.112 et 0.033 er 0.030] ------- [0:0 1:0 32 0] [16] 0 0
N -t 160.496000 -n 1 -e 954.003408
N -t 160.496000 -n 0 -e 952.716898
N -t 160.639200 -n 1 -e 953.859208
N -t 160.639200 -n 0 -e 952.572698
N -t 161.000000 -n 0 -e 952.572337
N -t 161.000000 -n 1 -e 953.858847
N -t 161.929000 -n 1 -e 953.856918
N -t 161.929000 -n 0 -e 952.570408
s 161.965000000 _1_ MAC  --- 0 SYNC 9 [0.10 1 0] [energy 953.856918 ei 45.784 es 0.116 et 0.030 er 0.033] 
N -t 161.965000 -n 0 -e 952.531408
N -t 162.072200 -n 0 -e 952.426208
N -t 162.072200 -n 1 -e 953.712718
N -t 163.362000 -n 0 -e 952.423918
N -t 163.362000 -n 1 -e 953.710428
s 163.383000000 _0_ MAC  --- 0 SYNC 9 [0.12 0 1] [energy 952.423918 ei 47.214 es 0.116 et 0.033 er 0.033] 
N -t 163.383000 -n 1 -e 953.686428
N -t 163.505200 -n 1 -e 953.566228
N -t 163.505200 -n 0 -e 952.279718
N -t 164.795000 -n 1 -e 953.563938
N -t 164.795000 -n 0 -e 952.277428
N -t 164.938200 -n 1 -e 953.419738
N -t 164.938200 -n 0 -e 952.133228
N -t 166.228000 -n 1 -e 953.417449
N -t 166.228000 -n 0 -e 952.130938
N -t 166.371200 -n 1 -e 953.273249
N -t 166.371200 -n 0 -e 951.986738
s 167.011594818 _0_ AGT  --- 17 cbr 512 [0.00 0 0] [energy 951.986738 ei 47.641 es 0.119 et 0.036 er 0.033] ------- [0:0 1:0 32 0] [17] 0 0
r 167.011594818 _0_ RTR  --- 17 cbr 512 [0.00 0 0] [energy 951.986738 ei 47.641 es 0.119 et 0.036 er 0.033] ------- [0:0 1:0 32 0] [17] 0 0
s 167.011594818 _0_ RTR  --- 17 cbr 512 [0.00 0 0] [energy 951.986738 ei 47.641 es 0.119 et 0.036 er 0.033] ------- [0:0 1:0 32 0] [17] 0 0
D 167.011594818 _0_ IFQ  ARP 16 cbr 512 [0.00 0 0] [energy 951.986738 ei 47.641 es 0.119 et 0.036 er 0.033] ------- [0:0 1:0 32 0] [16] 0 0
N -t 167.661000 -n 1 -e 953.270959
N -t 167.661000 -n 0 -e 951.984449
N -t 167.804200 -n 1 -e 953.126759
N -t 167.804200 -n 0 -e 951.840249
N -t 169.094000 -n 1 -e 953.124469
N -t 169.094000 -n 0 -e 951.837959
N -t 169.237200 -n 1 -e 952.980269
N -t 169.237200 -n 0 -e 951.693759
N -t 170.527000 -n 1 -e 952.977979
N -t 170.527000 -n 0 -e 951.691469
N -t 170.670200 -n 1 -e 952.833779
N -t 170.670200 -n 0 -e 951.547269
N -t 171.000000 -n 0 -e 951.546939
N -t 171.000000 -n 1 -e 952.833449
N -t 171.960000 -n 1 -e 952.831489
N -t 171.960000 -n 0 -e 951.544979
N -t 172.103200 -n 1 -e 952.687289
N -t 172.103200 -n 0 -e 951.400779
N -t 173.393000 -n 1 -e 952.685000
N -t 173.393000 -n 0 -e 951.398489
N -t 173.536200 -n 1 -e 952.540800
N -t 173.536200 -n 0 -e 951.254289
N -t 174.826000 -n 1 -e 952.538510
N -t 174.826000 -n 0 -e 951.252000
N -t 174.969200 -n 1 -e 952.394310
N -t 174.969200 -n 0 -e 951.107800
N -t 176.259000 -n 1 -e 952.392020
N -t 176.259000 -n 0 -e 951.105510
s 176.298000000 _1_ MAC  --- 0 SYNC 9 [0.10 1 0] [energy 952.392020 ei 47.210 es 0.129 et 0.033 er 0.036] 
N -t 176.298000 -n 0 -e 951.063510
N -t 176.402200 -n 0 -e 950.961310
N -t 176.402200 -n 1 -e 952.247820
N -t 177.692000 -n 0 -e 950.959020
N -t 177.692000 -n 1 -e 952.245530
s 177.705000000 _0_ MAC  --- 0 SYNC 9 [0.13 0 1] [energy 950.959020 ei 48.640 es 0.129 et 0.036 er 0.036] 
N -t 177.705000 -n 1 -e 952.229530
N -t 177.835200 -n 1 -e 952.101330
N -t 177.835200 -n 0 -e 950.814820
N -t 179.125000 -n 1 -e 952.099040
N -t 179.125000 -n 0 -e 950.812530
N -t 179.268200 -n 1 -e 951.954840
N -t 179.268200 -n 0 -e 950.668330
N -t 180.558000 -n 1 -e 951.952551
N -t 180.558000 -n 0 -e 950.666040
N -t 180.701200 -n 1 -e 951.808351
N -t 180.701200 -n 0 -e 950.521840
s 180.925073032 _0_ AGT  --- 18 cbr 512 [0.00 0 0] [energy 950.521840 ei 49.067 es 0.132 et 0.039 er 0.036] ------- [0:0 1:0 32 0] [18] 0 0
r 180.925073032 _0_ RTR  --- 18 cbr 512 [0.00 0 0] [energy 950.521840 ei 49.067 es 0.132 et 0.039 er 0.036] ------- [0:0 1:0 32 0] [18] 0 0
s 180.925073032 _0_ RTR  --- 18 cbr 512 [0.00 0 0] [energy 950.521840 ei 49.067 es 0.132 et 0.039 er 0.036] ------- [0:0 1:0 32 0] [18] 0 0
D 180.925073032 _0_ IFQ  ARP 17 cbr 512 [0.00 0 0] [energy 950.521840 ei 49.067 es 0.132 et 0.039 er 0.036] ------- [0:0 1:0 32 0] [17] 0 0
N -t 181.000000 -n 0 -e 950.521542
N -t 181.000000 -n 1 -e 951.808052
N -t 181.991000 -n 1 -e 951.806061
N -t 181.991000 -n 0 -e 950.519551
N -t 182.134200 -n 1 -e 951.661861
N -t 182.134200 -n 0 -e 950.375351
N -t 183.424000 -n 1 -e 951.659571
N -t 183.424000 -n 0 -e 950.373061
N -t 183.567200 -n 1 -e 951.515371
N -t 183.567200 -n 0 -e 950.228861
N -t 184.857000 -n 1 -e 951.513081
N -t 184.857000 -n 0 -e 950.226571
N -t 185.000200 -n 1 -e 951.368881
N -t 185.000200 -n 0 -e 950.082371
s 186.033156415 _0_ AGT  --- 19 cbr 512 [0.00 0 0] [energy 950.082371 ei 49.496 es 0.135 et 0.039 er 0.036] ------- [0:0 1:0 32 0] [19] 0 0
r 186.033156415 _0_ RTR  --- 19 cbr 512 [0.00 0 0] [energy 950.082371 ei 49.496 es 0.135 et 0.039 er 0.036] ------- [0:0 1:0 32 0] [19] 0 0